 Gaussian 03, Revision D.01,
 Gaussian 03:  AM64L-G03RevD.01 13-Oct-2005

 ------------------------------------------------------
 #p B3LYP/6-31G(d) sp scf(fermi,tight) density(current)
 ------------------------------------------------------

 -------
 ethanol
 -------
 Symbolic Z-matrix:
 Charge =  0 Multiplicity = 1

                         Standard orientation:
 ---------------------------------------------------------------------
 Center     Atomic     Atomic              Coordinates (Angstroms)
 Number     Number      Type              X           Y           Z
 ---------------------------------------------------------------------
    1          8             0        1.240677   -0.260448   -0.109954
    2          6             0        0.084492    0.555881    0.047134
    3          6             0       -1.216344   -0.239409   -0.021856
    4          1             0        0.129715    1.129482    0.987653
    5          1             0        0.129835    1.279971   -0.772961
    6          1             0       -2.086923    0.423729    0.050129
    7          1             0       -1.276589   -0.793335   -0.964465
    8          1             0       -1.280905   -0.961804    0.802594
    9          1             0        1.250567   -0.893290    0.625011
 ---------------------------------------------------------------------

 SCF Done:  E(RB+HF-LYP) =  -155.034287122     A.U. after   12 cycles

 The electronic state is 1-A.
 Alpha  occ. eigenvalues --  -19.13799 -10.22825 -10.17783  -1.00968  -0.74318
 Alpha  occ. eigenvalues --   -0.62041  -0.49733  -0.44744  -0.42624  -0.37895
 Alpha  occ. eigenvalues --   -0.36767  -0.32075  -0.26304
 Alpha virt. eigenvalues --    0.07576   0.12328   0.14549   0.15627   0.16740
 Alpha virt. eigenvalues --    0.19030   0.22180   0.24724   0.52620   0.55139
 Alpha virt. eigenvalues --    0.56435   0.58218   0.65535   0.67884   0.80294

 Mulliken atomic charges:
              1
     1  O   -0.609694
     2  C   -0.025745
     3  C   -0.457166
     4  H    0.120047
     5  H    0.149004
     6  H    0.143292
     7  H    0.160241
     8  H    0.135481
     9  H    0.384541
 Sum of Mulliken charges=   0.00000

 Dipole moment (field-independent basis, Debye):
    X=    -1.1411    Y=    -0.2249    Z=     1.2035  Tot=     1.6736
 Quadrupole moment (field-independent basis, Debye-Ang):
   XX=   -21.9587   YY=   -18.4218   ZZ=   -18.9453
   XY=    -0.9993   XZ=     1.8368   YZ=    -1.4460

 Normal termination of Gaussian 03 at Tue Aug 10 10:24:23 2010.
