 Gaussian 03, Revision D.01,
 Gaussian 03:  AM64L-G03RevD.01 13-Oct-2005

 ------------------------------------------------------
 #p B3LYP/6-31G(d) sp scf(fermi,tight) density(current)
 ------------------------------------------------------

 ------------
 formaldehyde
 ------------
 Symbolic Z-matrix:
 Charge =  0 Multiplicity = 1

                         Standard orientation:
 ---------------------------------------------------------------------
 Center     Atomic     Atomic              Coordinates (Angstroms)
 Number     Number      Type              X           Y           Z
 ---------------------------------------------------------------------
    1          8             0       -0.000004    0.677450    0.000000
    2          6             0       -0.000004   -0.529096    0.000000
    3          1             0        0.000025   -1.122510    0.938193
    4          1             0        0.000025   -1.122510   -0.938193
 ---------------------------------------------------------------------

 SCF Done:  E(RB+HF-LYP) =  -114.500472029     A.U. after   12 cycles

 The electronic state is 1-A'.
 Alpha  occ. eigenvalues --  -19.16966 -10.28898  -1.06077  -0.63753  -0.49552
 Alpha  occ. eigenvalues --   -0.44943  -0.39913  -0.26845
 Alpha virt. eigenvalues --   -0.04209   0.10132   0.18210   0.21878   0.50661
 Alpha virt. eigenvalues --    0.62320   0.62717   0.69374   0.81430   0.83732
 Alpha virt. eigenvalues --    0.89062   0.96014   1.05929   1.37730   1.50574

 Mulliken atomic charges:
              1
     1  O   -0.322985
     2  C    0.080371
     3  H    0.121307
     4  H    0.121307
 Sum of Mulliken charges=   0.00000

 Dipole moment (field-independent basis, Debye):
    X=     0.0000    Y=    -2.1871    Z=     0.0000  Tot=     2.1871
 Quadrupole moment (field-independent basis, Debye-Ang):
   XX=   -11.4044   YY=   -11.9293   ZZ=   -11.5041
   XY=     0.0000   XZ=     0.0000   YZ=     0.0000

 Normal termination of Gaussian 03 at Tue Aug 10 10:24:51 2010.
