 Gaussian 03, Revision D.01,
 Gaussian 03:  AM64L-G03RevD.01 13-Oct-2005

 ------------------------------------------------------
 #p B3LYP/6-31G(d) sp scf(fermi,tight) density(current)
 ------------------------------------------------------

 -----------
 oxalic acid
 -----------
 Symbolic Z-matrix:
 Charge =  0 Multiplicity = 1

                         Standard orientation:
 ---------------------------------------------------------------------
 Center     Atomic     Atomic              Coordinates (Angstroms)
 Number     Number      Type              X           Y           Z
 ---------------------------------------------------------------------
    1          8             0       -1.470827    0.970430    0.000294
    2          8             0        1.470826   -0.970431    0.000269
    3          8             0       -1.209276   -1.278515   -0.000019
    4          8             0        1.209276    1.278516   -0.000082
    5          6             0       -0.751917   -0.162888   -0.000379
    6          6             0        0.751918    0.162888   -0.000461
    7          1             0       -2.408516    0.699523    0.000695
    8          1             0        2.408515   -0.699522    0.000645
 ---------------------------------------------------------------------

 SCF Done:  E(RB+HF-LYP) =  -378.313428184     A.U. after   13 cycles

 The electronic state is 1-A.
 Alpha  occ. eigenvalues --  -19.22224 -19.22224 -19.16932 -19.16931 -10.35093
 Alpha  occ. eigenvalues --  -10.35074  -1.14404  -1.12150  -1.05177  -1.03767
 Alpha  occ. eigenvalues --   -0.73111  -0.63744  -0.53369  -0.50269  -0.50140
 Alpha  occ. eigenvalues --   -0.49328  -0.44516  -0.43922  -0.41090  -0.34590
 Alpha  occ. eigenvalues --   -0.33969  -0.33829  -0.28157
 Alpha virt. eigenvalues --   -0.07235   0.05209   0.06605   0.07165   0.20951
 Alpha virt. eigenvalues --    0.23294   0.25716   0.32627   0.41585   0.49286
 Alpha virt. eigenvalues --    0.53942   0.59473   0.61343   0.62204   0.64684

 Mulliken atomic charges:
              1
     1  O   -0.535519
     2  O   -0.535518
     3  O   -0.425430
     4  O   -0.425430
     5  C    0.538602
     6  C    0.538601
     7  H    0.422347
     8  H    0.422347
 Sum of Mulliken charges=   0.00000

 Dipole moment (field-independent basis, Debye):
    X=     0.0000    Y=     0.0000    Z=     0.0001  Tot=     0.0001
 Quadrupole moment (field-independent basis, Debye-Ang):
   XX=   -21.7713   YY=   -40.8449   ZZ=   -31.1886
   XY=    -5.6968   XZ=    -0.0001   YZ=     0.0002

 Normal termination of Gaussian 03 at Tue Aug 10 10:25:06 2010.
