 Gaussian 03, Revision D.01,
 Gaussian 03:  AM64L-G03RevD.01 13-Oct-2005

 ------------------------------------------------------
 #p B3LYP/6-31G(d) sp scf(fermi,tight) density(current)
 ------------------------------------------------------

 ---------------
 Alanine radical
 ---------------
 Symbolic Z-matrix:
 Charge =  0 Multiplicity = 2

                         Standard orientation:
 ---------------------------------------------------------------------
 Center     Atomic     Atomic              Coordinates (Angstroms)
 Number     Number      Type              X           Y           Z
 ---------------------------------------------------------------------
    1          8             0       -1.549298    1.065932    0.075848
    2          8             0       -1.403285   -1.050624   -0.225098
    3          7             0        1.089247   -1.321005    0.016384
    4          6             0        0.657307    0.017508    0.389923
    5          6             0        1.401457    1.194138   -0.249917
    6          6             0       -0.831210    0.058439    0.075761
    7          1             0        0.737148    0.094570    1.482586
    8          1             0        0.919146    2.137570    0.029097
    9          1             0        2.446111    1.222119    0.077501
   10          1             0        1.382782    1.117670   -1.343570
   11          1             0        1.907112   -1.644642    0.521984
   12          1             0        1.238315   -1.423218   -0.982892
 ---------------------------------------------------------------------

 SCF Done:  E(UB+HF-LYP) =  -323.066955684     A.U. after   24 cycles

 The electronic state is 2-A.
 Alpha  occ. eigenvalues --  -19.19989 -19.16889 -14.35877 -10.31620 -10.24936
 Alpha  occ. eigenvalues --  -10.19946  -1.10759  -1.00342  -0.92154  -0.76694
 Alpha  occ. eigenvalues --   -0.66831  -0.56155  -0.52559  -0.49964  -0.47473
 Alpha  occ. eigenvalues --   -0.46057  -0.44003  -0.41834  -0.40933  -0.37996
 Alpha  occ. eigenvalues --   -0.33129  -0.31303  -0.30979  -0.26838
 Alpha virt. eigenvalues --    0.00365   0.06470   0.10513   0.11591   0.14515
 Alpha virt. eigenvalues --    0.15671   0.15899   0.20718   0.22807   0.25111
 Alpha virt. eigenvalues --    0.33351   0.38011   0.50729   0.52300   0.53625

  Beta  occ. eigenvalues --  -19.18297 -19.16007 -14.35566 -10.31719 -10.24960
  Beta  occ. eigenvalues --  -10.19943  -1.08355  -0.97175  -0.91564  -0.76504
  Beta  occ. eigenvalues --   -0.66563  -0.55768  -0.51374  -0.48336  -0.46044
  Beta  occ. eigenvalues --   -0.45589  -0.43124  -0.41314  -0.39958  -0.37688
  Beta  occ. eigenvalues --   -0.29475  -0.27439  -0.26258
  Beta virt. eigenvalues --   -0.16232   0.00714   0.06621   0.10577   0.11708
  Beta virt. eigenvalues --    0.14609   0.15738   0.15943   0.21008   0.22866
  Beta virt. eigenvalues --    0.25344   0.34467   0.38666   0.50670   0.52435

 Mulliken atomic charges:
              1
     1  O   -0.407933
     2  O   -0.322227
     3  N   -0.682165
     4  C   -0.092943
     5  C   -0.452361
     6  C    0.640958
     7  H    0.182610
     8  H    0.178867
     9  H    0.151485
    10  H    0.154642
    11  H    0.324875
    12  H    0.324191
 Sum of Mulliken charges=   0.00000

 Dipole moment (field-independent basis, Debye):
    X=     4.8240    Y=    -0.2107    Z=     0.2116  Tot=     4.8332
 Quadrupole moment (field-independent basis, Debye-Ang):
   XX=   -36.3018   YY=   -37.8620   ZZ=   -32.2964
   XY=    -1.6378   XZ=    -0.1813   YZ=     0.3919

 Normal termination of Gaussian 03 at Wed Aug  4 11:08:20 2010.
