 Gaussian 03, Revision D.01,
 Gaussian 03:  AM64L-G03RevD.01 13-Oct-2005

 ------------------------------------------------------
 #p B3LYP/6-31G(d) sp scf(fermi,tight) density(current)
 ------------------------------------------------------

 --------------------
 Alanine optimization
 --------------------
 Symbolic Z-matrix:
 Charge =  0 Multiplicity = 1

                         Standard orientation:
 ---------------------------------------------------------------------
 Center     Atomic     Atomic              Coordinates (Angstroms)
 Number     Number      Type              X           Y           Z
 ---------------------------------------------------------------------
    1          8             0        1.657643    0.744201   -0.489837
    2          8             0        1.102099   -1.089074    0.697794
    3          7             0       -1.404761   -1.091053   -0.458203
    4          6             0       -0.655372    0.161524   -0.415840
    5          6             0       -1.204817    1.230334    0.557895
    6          6             0        0.774816   -0.164020   -0.012894
    7          1             0       -0.627559    0.594522   -1.422940
    8          1             0       -0.609640    2.149682    0.525945
    9          1             0       -2.235463    1.483422    0.284035
   10          1             0       -1.205448    0.848510    1.585349
   11          1             0       -2.403965   -0.897766   -0.440133
   12          1             0       -1.180805   -1.635048    0.373827
   13          1             0        2.530514    0.486013   -0.137289
 ---------------------------------------------------------------------

 SCF Done:  E(RB+HF-LYP) =  -323.737090616     A.U. after   14 cycles

 The electronic state is 1-A.
 Alpha  occ. eigenvalues --  -19.20210 -19.14442 -14.31429 -10.32254 -10.23191
 Alpha  occ. eigenvalues --  -10.19023  -1.11012  -1.01999  -0.89068  -0.75253
 Alpha  occ. eigenvalues --   -0.67295  -0.58679  -0.52603  -0.48746  -0.46516
 Alpha  occ. eigenvalues --   -0.44261  -0.43520  -0.40917  -0.40720  -0.37524
 Alpha  occ. eigenvalues --   -0.36544  -0.32243  -0.28010  -0.23782
 Alpha virt. eigenvalues --    0.00628   0.07097   0.08497   0.13601   0.14093
 Alpha virt. eigenvalues --    0.15511   0.16751   0.18257   0.21346   0.22453
 Alpha virt. eigenvalues --    0.26785   0.31819   0.36779   0.51922   0.53581

 Mulliken atomic charges:
              1
     1  O   -0.567167
     2  O   -0.466377
     3  N   -0.713655
     4  C   -0.033183
     5  C   -0.462863
     6  C    0.588133
     7  H    0.163587
     8  H    0.161607
     9  H    0.152027
    10  H    0.156395
    11  H    0.296031
    12  H    0.315029
    13  H    0.410436
 Sum of Mulliken charges=   0.00000

 Dipole moment (field-independent basis, Debye):
    X=    -0.5761    Y=     1.9265    Z=     0.5065  Tot=     2.0736
 Quadrupole moment (field-independent basis, Debye-Ang):
   XX=   -27.9940   YY=   -39.6204   ZZ=   -37.9995
   XY=     1.3442   XZ=    -1.5631   YZ=    -0.2781

 Normal termination of Gaussian 03 at Wed Aug  4 11:06:35 2010.
